 Gaussian 09, Revision B.01,
 Gaussian 09:  IA64L-G09RevB.01 12-Aug-2010

 ----------------------------------------------------------------------
 #b3lyp TD=(singlets,nstates=3)/aug-cc-pVTZ SCRF=(IEFPCM,solvent=cycloh
 exane) SCF(maxCyc=200,conver=8) 5D 7F gfinput pop=full guess=read geom
 =checkpoint
 ----------------------------------------------------------------------

 Zn12S12 K testing with B3LYP/SBKJ(d) and 6-311+G*
 -------------------------------------------------
 Redundant internal coordinates taken from checkpoint file:
 azetilo-kloruroa-b3lyp-acct.chk
 Charge =  0 Multiplicity = 1

                         Standard orientation:
 ---------------------------------------------------------------------
 Center     Atomic      Atomic             Coordinates (Angstroms)
 Number     Number       Type             X           Y           Z
 ---------------------------------------------------------------------
      1          6           0        0.000000    0.546825    0.000000
      2          8           0        0.854519    1.360808    0.000000
      3          6           0       -1.481210    0.745001    0.000000
      4          1           0       -1.910865    0.265492    0.878569
      5          1           0       -1.702166    1.809280    0.000000
      6          1           0       -1.910865    0.265492   -0.878569
      7         17           0        0.445589   -1.233981    0.000000
 ---------------------------------------------------------------------

 SCF Done:  E(RB3LYP) =  -613.551096784     A.U. after    1 cycles

 Excitation energies and oscillator strengths:

 Excited State   1:      Singlet-A"     5.2350 eV  236.84 nm  f=0.0000  <S**2>=0.000
      19 -> 21        -0.11871
      20 -> 21         0.69404
 This state for optimization and/or second-order correction.
 Total Energy, E(TD-HF/TD-KS) =  -613.358714759
 Copying the excited state density for this state as the 1-particle RhoCI density.

 Excited State   2:      Singlet-A"     6.1908 eV  200.27 nm  f=0.0000  <S**2>=0.000
      19 -> 21         0.69589
      20 -> 21         0.11969

 Excited State   3:      Singlet-A'     6.5225 eV  190.09 nm  f=0.0064  <S**2>=0.000
      18 -> 21         0.63136
      20 -> 22        -0.19098
      20 -> 23        -0.23772

 The electronic state is 1-A'.
 Alpha  occ. eigenvalues -- -101.56630 -19.17486 -10.33938 -10.21041  -9.47120
 Alpha  occ. eigenvalues --   -7.23328  -7.22643  -7.22526  -1.11231  -0.85361
 Alpha  occ. eigenvalues --   -0.77274  -0.57161  -0.50380  -0.48801  -0.48659
 Alpha  occ. eigenvalues --   -0.42764  -0.41155  -0.33334  -0.32969  -0.31054
 Alpha virt. eigenvalues --   -0.05283  -0.01680   0.00076   0.01778   0.02041
 Alpha virt. eigenvalues --    0.02434   0.05398   0.05962   0.06749   0.06990
 Alpha virt. eigenvalues --    0.07414   0.08223   0.10337   0.10624   0.10830

 Mulliken atomic charges:
              1
     1  C    0.454049
     2  O   -0.476340
     3  C   -0.516377
     4  H    0.263477
     5  H    0.234248
     6  H    0.263477
     7  Cl  -0.222534
 Sum of Mulliken atomic charges =   0.00000

 Dipole moment (field-independent basis, Debye):
    X=             -3.1624    Y=              0.3988    Z=              0.0000  Tot=              3.1875
 Quadrupole moment (field-independent basis, Debye-Ang):
   XX=            -29.5303   YY=            -33.0139   ZZ=            -29.6402
   XY=             -2.9073   XZ=              0.0000   YZ=              0.0000

 Normal termination of Gaussian 09 at Wed Jan 18 20:09:10 2012.
