 Gaussian 09, Revision B.01,
 Gaussian 09:  IA64L-G09RevB.01 12-Aug-2010

 ----------------------------------------------------------------------
 #b3lyp TD=(singlets,nstates=3)/aug-cc-pVTZ SCRF=(IEFPCM,solvent=cycloh
 exane) SCF(maxCyc=200,conver=8) 5D 7F gfinput pop=full guess=read geom
 =checkpoint
 ----------------------------------------------------------------------

 Zn12S12 K testing with B3LYP/SBKJ(d) and 6-311+G*
 -------------------------------------------------
 Redundant internal coordinates taken from checkpoint file:
 azido-azetikoa-b3lyp-acct.chk
 Charge =  0 Multiplicity = 1

                         Standard orientation:
 ---------------------------------------------------------------------
 Center     Atomic      Atomic             Coordinates (Angstroms)
 Number     Number       Type             X           Y           Z
 ---------------------------------------------------------------------
      1          6           0        0.000000    0.153523    0.000000
      2          8           0       -0.184021    1.345555    0.000000
      3          6           0       -1.064980   -0.903023    0.000000
      4          1           0       -0.953728   -1.539347    0.877851
      5          1           0       -2.044848   -0.437435    0.000000
      6          1           0       -0.953728   -1.539347   -0.877851
      7          8           0        1.242078   -0.387019    0.000000
      8          1           0        1.877731    0.344829    0.000000
 ---------------------------------------------------------------------

 SCF Done:  E(RB3LYP) =  -229.188772416     A.U. after    1 cycles

 Excitation energies and oscillator strengths:

 Excited State   1:      Singlet-A"     5.8313 eV  212.62 nm  f=0.0006  <S**2>=0.000
      16 -> 18         0.69500
      16 -> 20        -0.11894
 This state for optimization and/or second-order correction.
 Total Energy, E(TD-HF/TD-KS) =  -228.974477295
 Copying the excited state density for this state as the 1-particle RhoCI density.

 Excited State   2:      Singlet-A'     6.7133 eV  184.68 nm  f=0.0515  <S**2>=0.000
      16 -> 17         0.69622

 Excited State   3:      Singlet-A'     7.4397 eV  166.65 nm  f=0.0015  <S**2>=0.000
      15 -> 18        -0.15268
      16 -> 19         0.68014

 The electronic state is 1-A'.
 Alpha  occ. eigenvalues --  -19.18599 -19.13011 -10.31979 -10.18995  -1.11924
 Alpha  occ. eigenvalues --   -1.03037  -0.76810  -0.62275  -0.50429  -0.49065
 Alpha  occ. eigenvalues --   -0.48079  -0.42004  -0.40867  -0.40211  -0.33837
 Alpha  occ. eigenvalues --   -0.29402
 Alpha virt. eigenvalues --   -0.01522  -0.01145   0.00660   0.02400   0.02405
 Alpha virt. eigenvalues --    0.04425   0.05749   0.06444   0.06842   0.08229
 Alpha virt. eigenvalues --    0.08345   0.08542   0.10984   0.11448   0.11642

 Mulliken atomic charges:
              1
     1  C    0.434889
     2  O   -0.581707
     3  C   -0.407900
     4  H    0.223366
     5  H    0.240430
     6  H    0.223366
     7  O   -0.313855
     8  H    0.181411
 Sum of Mulliken atomic charges =   0.00000

 Dipole moment (field-independent basis, Debye):
    X=              0.3194    Y=             -1.9728    Z=              0.0000  Tot=              1.9985
 Quadrupole moment (field-independent basis, Debye-Ang):
   XX=            -20.1624   YY=            -27.8753   ZZ=            -23.3229
   XY=              3.9064   XZ=              0.0000   YZ=              0.0000

 Normal termination of Gaussian 09 at Wed Jan 18 20:09:37 2012.
