 Gaussian 09, Revision B.01,
 Gaussian 09:  AM64L-G09RevB.01 12-Aug-2010

 ----------------------------------------------------------------------
 #b3lyp TD=(singlets,nstates=3)/aug-cc-pVTZ SCRF=(IEFPCM,solvent=aceton
 itrile) SCF(maxCyc=200,conver=8) 5D 7F gfinput pop=full guess=read geo
 m=checkpoint
 ----------------------------------------------------------------------

 Zn12S12 K testing with B3LYP/SBKJ(d) and 6-311+G*
 -------------------------------------------------
 Redundant internal coordinates taken from checkpoint file:
 azetona-b3lyp-acct-azetonitrilo.chk
 Charge =  0 Multiplicity = 1

                         Standard orientation:
 ---------------------------------------------------------------------
 Center     Atomic      Atomic             Coordinates (Angstroms)
 Number     Number       Type             X           Y           Z
 ---------------------------------------------------------------------
      1          6           0        0.000000    0.000000    0.179970
      2          6           0        0.000000    1.284006   -0.610527
      3          6           0        0.000000   -1.284006   -0.610527
      4          1           0        0.000000   -2.143363    0.054573
      5          1           0       -0.875889   -1.320348   -1.261234
      6          1           0        0.875889   -1.320348   -1.261234
      7          1           0        0.000000    2.143363    0.054573
      8          1           0        0.875889    1.320348   -1.261234
      9          1           0       -0.875889    1.320348   -1.261234
     10          8           0        0.000000    0.000000    1.397787
 ---------------------------------------------------------------------

 SCF Done:  E(RB3LYP) =  -193.243102741     A.U. after    1 cycles

 Excitation energies and oscillator strengths:

 Excited State   1:      Singlet-A2     4.5339 eV  273.46 nm  f=0.0000  <S**2>=0.000
      16 -> 17         0.70173
 This state for optimization and/or second-order correction.
 Total Energy, E(TD-HF/TD-KS) =  -193.076484254
 Copying the excited state density for this state as the 1-particle RhoCI density.

 Excited State   2:      Singlet-B2     6.1161 eV  202.72 nm  f=0.0416  <S**2>=0.000
      16 -> 18         0.69822

 Excited State   3:      Singlet-A1     6.8947 eV  179.82 nm  f=0.0001  <S**2>=0.000
      16 -> 19         0.69936

 The electronic state is 1-A1.
 Alpha  occ. eigenvalues --  -19.12901 -10.27487 -10.17588 -10.17586  -1.05316
 Alpha  occ. eigenvalues --   -0.77508  -0.71391  -0.53989  -0.46709  -0.46469
 Alpha  occ. eigenvalues --   -0.46242  -0.40319  -0.40297  -0.38395  -0.36215
 Alpha  occ. eigenvalues --   -0.26512
 Alpha virt. eigenvalues --   -0.03051  -0.01008   0.01166   0.02010   0.02308
 Alpha virt. eigenvalues --    0.03851   0.03867   0.04517   0.06370   0.07093
 Alpha virt. eigenvalues --    0.08152   0.08400   0.08971   0.09201   0.10399

 Mulliken atomic charges:
              1
     1  C    0.560503
     2  C   -0.589353
     3  C   -0.589353
     4  H    0.192167
     5  H    0.231918
     6  H    0.231918
     7  H    0.192167
     8  H    0.231918
     9  H    0.231918
    10  O   -0.693802
 Sum of Mulliken atomic charges =   0.00000

 Dipole moment (field-independent basis, Debye):
    X=              0.0000    Y=              0.0000    Z=             -4.0554  Tot=              4.0554
 Quadrupole moment (field-independent basis, Debye-Ang):
   XX=            -24.2021   YY=            -23.5532   ZZ=            -29.7167
   XY=              0.0000   XZ=              0.0000   YZ=              0.0000

 Normal termination of Gaussian 09 at Wed Jan 18 17:57:50 2012.
