 Gaussian 09, Revision B.01,
 Gaussian 09:  IA64L-G09RevB.01 12-Aug-2010

 ----------------------------------------------------------------------
 #b3lyp TD=(singlets,nstates=3)/aug-cc-pVTZ SCRF=(IEFPCM,solvent=water)
  SCF(maxCyc=200,conver=8) 5D 7F gfinput pop=full
 ----------------------------------------------------------------------

 -------------------------------------------------
 Zn12S12 K testing with B3LYP/SBKJ(d) and 6-311+G*
 -------------------------------------------------
 Symbolic Z-matrix:
 Charge =  0 Multiplicity = 1

                         Standard orientation:
 ---------------------------------------------------------------------
 Center     Atomic      Atomic             Coordinates (Angstroms)
 Number     Number       Type             X           Y           Z
 ---------------------------------------------------------------------
      1          6           0        0.000000    0.000000    0.183186
      2          6           0        0.000000    1.278993   -0.612240
      3          6           0        0.000000   -1.278993   -0.612240
      4          1           0        0.000000   -2.144882    0.044163
      5          1           0       -0.875280   -1.305872   -1.264075
      6          1           0        0.875280   -1.305872   -1.264075
      7          1           0        0.000000    2.144882    0.044163
      8          1           0        0.875280    1.305872   -1.264075
      9          1           0       -0.875280    1.305872   -1.264075
     10          8           0        0.000000    0.000000    1.401968
 ---------------------------------------------------------------------

 SCF Done:  E(RB3LYP) =  -193.243264622     A.U. after   10 cycles

 Excitation energies and oscillator strengths:

 Excited State   1:      Singlet-A2     4.5383 eV  273.20 nm  f=0.0000  <S**2>=0.000
      16 -> 17         0.70173
 This state for optimization and/or second-order correction.
 Total Energy, E(TD-HF/TD-KS) =  -193.076485438
 Copying the excited state density for this state as the 1-particle RhoCI density.

 Excited State   2:      Singlet-B2     6.1220 eV  202.52 nm  f=0.0413  <S**2>=0.000
      16 -> 18         0.69808

 Excited State   3:      Singlet-A1     6.9035 eV  179.60 nm  f=0.0002  <S**2>=0.000
      16 -> 19         0.69924

 The electronic state is 1-A1.
 Alpha  occ. eigenvalues --  -19.12926 -10.27488 -10.17568 -10.17565  -1.05278
 Alpha  occ. eigenvalues --   -0.77632  -0.71359  -0.53984  -0.46662  -0.46506
 Alpha  occ. eigenvalues --   -0.46313  -0.40345  -0.40242  -0.38424  -0.36209
 Alpha  occ. eigenvalues --   -0.26534
 Alpha virt. eigenvalues --   -0.03062  -0.00999   0.01180   0.02002   0.02336
 Alpha virt. eigenvalues --    0.03853   0.03865   0.04547   0.06361   0.07072
 Alpha virt. eigenvalues --    0.08179   0.08398   0.09009   0.09213   0.10398

 Mulliken atomic charges:
              1
     1  C    0.561951
     2  C   -0.590522
     3  C   -0.590522
     4  H    0.192065
     5  H    0.232545
     6  H    0.232545
     7  H    0.192065
     8  H    0.232545
     9  H    0.232545
    10  O   -0.695218
 Sum of Mulliken atomic charges =   0.00000

 Dipole moment (field-independent basis, Debye):
    X=              0.0000    Y=              0.0000    Z=             -4.1046  Tot=              4.1046
 Quadrupole moment (field-independent basis, Debye-Ang):
   XX=            -24.1958   YY=            -23.5727   ZZ=            -29.7461
   XY=              0.0000   XZ=              0.0000   YZ=              0.0000

 Normal termination of Gaussian 09 at Wed Jan 18 17:19:10 2012.
