 Gaussian 09, Revision B.01,
 Gaussian 09:  IA64L-G09RevB.01 12-Aug-2010

 ----------------------------------------------------------------------
 #b3lyp TD=(singlets,nstates=3)/aug-cc-pVTZ SCRF=(IEFPCM,solvent=cycloh
 exane) SCF(maxCyc=200,conver=8) 5D 7F gfinput pop=full guess=read geom
 =checkpoint
 ----------------------------------------------------------------------

 Zn12S12 K testing with B3LYP/SBKJ(d) and 6-311+G*
 -------------------------------------------------
 Redundant internal coordinates taken from checkpoint file:
 azetona-b3lyp-acct-ziklohexano.chk
 Charge =  0 Multiplicity = 1

                         Standard orientation:
 ---------------------------------------------------------------------
 Center     Atomic      Atomic             Coordinates (Angstroms)
 Number     Number       Type             X           Y           Z
 ---------------------------------------------------------------------
      1          6           0        0.000000    0.000000    0.182765
      2          6           0        0.000000    1.286355   -0.611116
      3          6           0        0.000000   -1.286355   -0.611116
      4          1           0        0.000000   -2.143067    0.057201
      5          1           0       -0.876472   -1.325970   -1.261365
      6          1           0        0.876472   -1.325970   -1.261365
      7          1           0        0.000000    2.143067    0.057201
      8          1           0        0.876472    1.325970   -1.261365
      9          1           0       -0.876472    1.325970   -1.261365
     10          8           0        0.000000    0.000000    1.395982
 ---------------------------------------------------------------------

 SCF Done:  E(RB3LYP) =  -193.238905263     A.U. after    1 cycles

 Excitation energies and oscillator strengths:

 Excited State   1:      Singlet-A2     4.4618 eV  277.88 nm  f=0.0000  <S**2>=0.000
      16 -> 17         0.69966
 This state for optimization and/or second-order correction.
 Total Energy, E(TD-HF/TD-KS) =  -193.074935555
 Copying the excited state density for this state as the 1-particle RhoCI density.

 Excited State   2:      Singlet-B2     5.9131 eV  209.68 nm  f=0.0359  <S**2>=0.000
      16 -> 18         0.70055

 Excited State   3:      Singlet-A1     6.7170 eV  184.58 nm  f=0.0012  <S**2>=0.000
      16 -> 19         0.70132

 The electronic state is 1-A1.
 Alpha  occ. eigenvalues --  -19.12484 -10.27210 -10.17954 -10.17952  -1.05077
 Alpha  occ. eigenvalues --   -0.77615  -0.71653  -0.53967  -0.46796  -0.46666
 Alpha  occ. eigenvalues --   -0.46031  -0.40782  -0.40389  -0.38601  -0.36071
 Alpha  occ. eigenvalues --   -0.26071
 Alpha virt. eigenvalues --   -0.02869  -0.01417   0.00910   0.01882   0.02148
 Alpha virt. eigenvalues --    0.03746   0.03796   0.04127   0.06337   0.07252
 Alpha virt. eigenvalues --    0.07648   0.08346   0.08857   0.09021   0.10086

 Mulliken atomic charges:
              1
     1  C    0.564787
     2  C   -0.592589
     3  C   -0.592589
     4  H    0.189736
     5  H    0.226035
     6  H    0.226035
     7  H    0.189736
     8  H    0.226035
     9  H    0.226035
    10  O   -0.663221
 Sum of Mulliken atomic charges =   0.00000

 Dipole moment (field-independent basis, Debye):
    X=              0.0000    Y=              0.0000    Z=             -3.4458  Tot=              3.4458
 Quadrupole moment (field-independent basis, Debye-Ang):
   XX=            -24.3356   YY=            -23.7090   ZZ=            -29.5064
   XY=              0.0000   XZ=              0.0000   YZ=              0.0000

 Normal termination of Gaussian 09 at Wed Jan 18 17:47:51 2012.
