 Gaussian 09, Revision A.02,
 Gaussian 09:  IA64L-G09RevA.02 11-Jun-2009

 ----------------------------------------------------------------------
 #b3lyp TD=(singlets,nstates=3)/aug-cc-pVTZ SCRF=(IEFPCM,solvent=chloro
 form) SCF(maxCyc=200,conver=8) 5D 7F gfinput pop=full guess=read geom=
 checkpoint
 ----------------------------------------------------------------------

 Zn12S12 K testing with B3LYP/SBKJ(d) and 6-311+G*
 -------------------------------------------------
 Redundant internal coordinates taken from checkpoint file:
 azetona-b3lyp-acct-kloroformo.chk
 Charge =  0 Multiplicity = 1

                         Standard orientation:
 ---------------------------------------------------------------------
 Center     Atomic      Atomic             Coordinates (Angstroms)
 Number     Number       Type             X           Y           Z
 ---------------------------------------------------------------------
      1          6           0        0.000000    0.000000    0.181355
      2          6           0        0.000000    1.285042   -0.610788
      3          6           0        0.000000   -1.285042   -0.610788
      4          1           0        0.000000   -2.143409    0.055435
      5          1           0       -0.876197   -1.322914   -1.261298
      6          1           0        0.876197   -1.322914   -1.261298
      7          1           0        0.000000    2.143409    0.055435
      8          1           0        0.876197    1.322914   -1.261298
      9          1           0       -0.876197    1.322914   -1.261298
     10          8           0        0.000000    0.000000    1.396956
 ---------------------------------------------------------------------

 SCF Done:  E(RB3LYP) =  -193.241146638     A.U. after    1 cycles

 Excitation energies and oscillator strengths:

 Excited State   1:      Singlet-A2     4.4989 eV  275.59 nm  f=0.0000  <S**2>=0.000
      16 -> 17         0.70091
 This state for optimization and/or second-order correction.
 Copying the excited state density for this state as the 1-particle RhoCI density.

 Excited State   2:      Singlet-B2     6.0279 eV  205.69 nm  f=0.0395  <S**2>=0.000
      16 -> 18         0.69934

 Excited State   3:      Singlet-A1     6.8165 eV  181.89 nm  f=0.0002  <S**2>=0.000
      16 -> 19         0.70041

 The electronic state is 1-A1.
 Alpha  occ. eigenvalues --  -19.12697 -10.27352 -10.17752 -10.17750  -1.05200
 Alpha  occ. eigenvalues --   -0.77552  -0.71505  -0.53971  -0.46741  -0.46554
 Alpha  occ. eigenvalues --   -0.46135  -0.40517  -0.40352  -0.38482  -0.36146
 Alpha  occ. eigenvalues --   -0.26298
 Alpha virt. eigenvalues --   -0.02959  -0.01173   0.01068   0.02089   0.02115
 Alpha virt. eigenvalues --    0.03827   0.03832   0.04343   0.06350   0.07179
 Alpha virt. eigenvalues --    0.07910   0.08408   0.08910   0.09113   0.10287

 Mulliken atomic charges:
              1
     1  C    0.562147
     2  C   -0.590786
     3  C   -0.590786
     4  H    0.191150
     5  H    0.229114
     6  H    0.229114
     7  H    0.191150
     8  H    0.229114
     9  H    0.229114
    10  O   -0.679333
 Sum of Mulliken atomic charges =   0.00000

 Dipole moment (field-independent basis, Debye):
    X=              0.0000    Y=              0.0000    Z=             -3.7643  Tot=              3.7643
 Quadrupole moment (field-independent basis, Debye-Ang):
   XX=            -24.2643   YY=            -23.6080   ZZ=            -29.6259
   XY=              0.0000   XZ=              0.0000   YZ=              0.0000

 Normal termination of Gaussian 09 at Wed Jan 18 16:53:34 2012.
