 Gaussian 09, Revision B.01,
 Gaussian 09:  IA64L-G09RevB.01 12-Aug-2010

 ----------------------------------------------------------------------
 #b3lyp TD=(singlets,nstates=3)/aug-cc-pVTZ SCRF=(IEFPCM,solvent=ethano
 l) SCF(maxCyc=200,conver=8) 5D 7F gfinput pop=full guess=read geom=che
 ckpoint
 ----------------------------------------------------------------------

 Zn12S12 K testing with B3LYP/SBKJ(d) and 6-311+G*
 -------------------------------------------------
 Redundant internal coordinates taken from checkpoint file:
 azetona-b3lyp-acct-etanol.chk
 Charge =  0 Multiplicity = 1

                         Standard orientation:
 ---------------------------------------------------------------------
 Center     Atomic      Atomic             Coordinates (Angstroms)
 Number     Number       Type             X           Y           Z
 ---------------------------------------------------------------------
      1          6           0        0.000000    0.000000    0.180202
      2          6           0        0.000000    1.284047   -0.610611
      3          6           0        0.000000   -1.284047   -0.610611
      4          1           0        0.000000   -2.143518    0.054294
      5          1           0       -0.875964   -1.320335   -1.261259
      6          1           0        0.875964   -1.320335   -1.261259
      7          1           0        0.000000    2.143518    0.054294
      8          1           0        0.875964    1.320335   -1.261259
      9          1           0       -0.875964    1.320335   -1.261259
     10          8           0        0.000000    0.000000    1.397820
 ---------------------------------------------------------------------

 SCF Done:  E(RB3LYP) =  -193.242955808     A.U. after    1 cycles

 Excitation energies and oscillator strengths:

 Excited State   1:      Singlet-A2     4.5313 eV  273.62 nm  f=0.0000  <S**2>=0.000
      16 -> 17         0.70168
 This state for optimization and/or second-order correction.
 Total Energy, E(TD-HF/TD-KS) =  -193.076434030
 Copying the excited state density for this state as the 1-particle RhoCI density.

 Excited State   2:      Singlet-B2     6.1098 eV  202.93 nm  f=0.0416  <S**2>=0.000
      16 -> 18         0.69829

 Excited State   3:      Singlet-A1     6.8891 eV  179.97 nm  f=0.0001  <S**2>=0.000
      16 -> 19         0.69945

 The electronic state is 1-A1.
 Alpha  occ. eigenvalues --  -19.12887 -10.27478 -10.17601 -10.17599  -1.05309
 Alpha  occ. eigenvalues --   -0.77511  -0.71398  -0.53988  -0.46708  -0.46475
 Alpha  occ. eigenvalues --   -0.46235  -0.40321  -0.40314  -0.38402  -0.36212
 Alpha  occ. eigenvalues --   -0.26495
 Alpha virt. eigenvalues --   -0.03043  -0.01019   0.01160   0.02016   0.02294
 Alpha virt. eigenvalues --    0.03850   0.03864   0.04504   0.06368   0.07100
 Alpha virt. eigenvalues --    0.08134   0.08403   0.08966   0.09194   0.10400

 Mulliken atomic charges:
              1
     1  C    0.560633
     2  C   -0.589467
     3  C   -0.589467
     4  H    0.192050
     5  H    0.231712
     6  H    0.231712
     7  H    0.192050
     8  H    0.231712
     9  H    0.231712
    10  O   -0.692647
 Sum of Mulliken atomic charges =   0.00000

 Dipole moment (field-independent basis, Debye):
    X=              0.0000    Y=              0.0000    Z=             -4.0327  Tot=              4.0327
 Quadrupole moment (field-independent basis, Debye-Ang):
   XX=            -24.2063   YY=            -23.5562   ZZ=            -29.7116
   XY=              0.0000   XZ=              0.0000   YZ=              0.0000

 Normal termination of Gaussian 09 at Wed Jan 18 15:49:57 2012.
